LAMMPS (2 Aug 2023 - Update 3)
OMP_NUM_THREADS environment is not set. Defaulting to 1 thread. (src/comm.cpp:98)
  using 1 OpenMP thread(s) per MPI task
Loaded 1 plugins from C:\Users\leo18\AppData\Local\LAMMPS 64-bit 2Aug2023 with Python\plugins
# initialization
units           lj
dimension       2
atom_style      atomic

# Atom definition

lattice         sq  0.1
Lattice spacing in x,y,z = 3.1622777 3.1622777 3.1622777
region          simbox  block   0   20  0   20  -0.1 0.1
create_box      1   simbox
Created orthogonal box = (0 0 -0.31622777) to (63.245553 63.245553 0.31622777)
  1 by 1 by 1 MPI processor grid
create_atoms    1   box
Created 400 atoms
  using lattice units in orthogonal box = (0 0 -0.31622777) to (63.245553 63.245553 0.31622777)
  create_atoms CPU = 0.000 seconds

# Settings
pair_style      lj/cut 2.5
pair_coeff      *   *   1   1

mass            *   1.0
velocity        all create  1.0 23494

# Run
fix             1   all nve
dump            1 all custom 10 output.txt id xs ys zs

run             1000
Generated 0 of 0 mixed pair_coeff terms from geometric mixing rule
Neighbor list info ...
  update: every = 1 steps, delay = 0 steps, check = yes
  max neighbors/atom: 2000, page size: 100000
  master list distance cutoff = 2.8
  ghost atom cutoff = 2.8
  binsize = 1.4, bins = 46 46 1
  1 neighbor lists, perpetual/occasional/extra = 1 0 0
  (1) pair lj/cut, perpetual
      attributes: half, newton on
      pair build: half/bin/atomonly/newton
      stencil: half/bin/2d
      bin: standard
Per MPI rank memory allocation (min/avg/max) = 3.059 | 3.059 | 3.059 Mbytes
   Step          Temp          E_pair         E_mol          TotEng         Press     
         0   1              0              0              0.9975         0.09975      
      1000   1.1984921     -0.21132533     0              0.98417052     0.12596797   
Loop time of 0.037101 on 1 procs for 1000 steps with 400 atoms

Performance: 11643891.000 tau/day, 26953.451 timesteps/s, 10.781 Matom-step/s
84.2% CPU use with 1 MPI tasks x 1 OpenMP threads

MPI task timing breakdown:
Section |  min time  |  avg time  |  max time  |%varavg| %total
---------------------------------------------------------------
Pair    | 0.001932   | 0.001932   | 0.001932   |   0.0 |  5.21
Neigh   | 0.00129    | 0.00129    | 0.00129    |   0.0 |  3.48
Comm    | 0.000407   | 0.000407   | 0.000407   |   0.0 |  1.10
Output  | 0.0304     | 0.0304     | 0.0304     |   0.0 | 81.94
Modify  | 0.001631   | 0.001631   | 0.001631   |   0.0 |  4.40
Other   |            | 0.001441   |            |       |  3.88

Nlocal:            400 ave         400 max         400 min
Histogram: 1 0 0 0 0 0 0 0 0 0
Nghost:             76 ave          76 max          76 min
Histogram: 1 0 0 0 0 0 0 0 0 0
Neighs:            413 ave         413 max         413 min
Histogram: 1 0 0 0 0 0 0 0 0 0

Total # of neighbors = 413
Ave neighs/atom = 1.0325
Neighbor list builds = 94
Dangerous builds = 0











Total wall time: 0:00:00
